# vtk DataFile Version 3.0
#This file was generated by the deal.II library on 2022/6/21 at 11:13:44
ASCII
DATASET UNSTRUCTURED_GRID

POINTS 20000 double
0 0 0
1e-05 0 0
1e-05 0 0
2e-05 0 0
2e-05 0 0
3e-05 0 0
3e-05 0 0
4e-05 0 0
4e-05 0 0
5e-05 0 0
5e-05 0 0
6e-05 0 0
6e-05 0 0
7e-05 0 0
7e-05 0 0
8e-05 0 0
8e-05 0 0
9e-05 0 0
9e-05 0 0
0.0001 0 0
0.0001 0 0
0.00011 0 0
0.00011 0 0
0.00012 0 0
0.00012 0 0
0.00013 0 0
0.00013 0 0
0.00014 0 0
0.00014 0 0
0.00015 0 0
0.00015 0 0
0.00016 0 0
0.00016 0 0
0.00017 0 0
0.00017 0 0
0.00018 0 0
0.00018 0 0
0.00019 0 0
0.00019 0 0
0.0002 0 0
0.0002 0 0
0.00021 0 0
0.00021 0 0
0.00022 0 0
0.00022 0 0
0.00023 0 0
0.00023 0 0
0.00024 0 0
0.00024 0 0
0.00025 0 0
0.00025 0 0
0.00026 0 0
0.00026 0 0
0.00027 0 0
0.00027 0 0
0.00028 0 0
0.00028 0 0
0.00029 0 0
0.00029 0 0
0.0003 0 0
0.0003 0 0
0.00031 0 0
0.00031 0 0
0.00032 0 0
0.00032 0 0
0.00033 0 0
0.00033 0 0
0.00034 0 0
0.00034 0 0
0.00035 0 0
0.00035 0 0
0.00036 0 0
0.00036 0 0
0.00037 0 0
0.00037 0 0
0.00038 0 0
0.00038 0 0
0.00039 0 0
0.00039 0 0
0.0004 0 0
0.0004 0 0
0.00041 0 0
0.00041 0 0
0.00042 0 0
0.00042 0 0
0.00043 0 0
0.00043 0 0
0.00044 0 0
0.00044 0 0
0.00045 0 0
0.00045 0 0
0.00046 0 0
0.00046 0 0
0.00047 0 0
0.00047 0 0
0.00048 0 0
0.00048 0 0
0.00049 0 0
0.00049 0 0
0.0005 0 0
0.0005 0 0
0.00051 0 0
0.00051 0 0
0.00052 0 0
0.00052 0 0
0.00053 0 0
0.00053 0 0
0.00054 0 0
0.00054 0 0
0.00055 0 0
0.00055 0 0
0.00056 0 0
0.00056 0 0
0.00057 0 0
0.00057 0 0
0.00058 0 0
0.00058 0 0
0.00059 0 0
0.00059 0 0
0.0006 0 0
0.0006 0 0
0.00061 0 0
0.00061 0 0
0.00062 0 0
0.00062 0 0
0.00063 0 0
0.00063 0 0
0.00064 0 0
0.00064 0 0
0.00065 0 0
0.00065 0 0
0.00066 0 0
0.00066 0 0
0.00067 0 0
0.00067 0 0
0.00068 0 0
0.00068 0 0
0.00069 0 0
0.00069 0 0
0.0007 0 0
0.0007 0 0
0.00071 0 0
0.00071 0 0
0.00072 0 0
0.00072 0 0
0.00073 0 0
0.00073 0 0
0.00074 0 0
0.00074 0 0
0.00075 0 0
0.00075 0 0
0.00076 0 0
0.00076 0 0
0.00077 0 0
0.00077 0 0
0.00078 0 0
0.00078 0 0
0.00079 0 0
0.00079 0 0
0.0008 0 0
0.0008 0 0
0.00081 0 0
0.00081 0 0
0.00082 0 0
0.00082 0 0
0.00083 0 0
0.00083 0 0
0.00084 0 0
0.00084 0 0
0.00085 0 0
0.00085 0 0
0.00086 0 0
0.00086 0 0
0.00087 0 0
0.00087 0 0
0.00088 0 0
0.00088 0 0
0.00089 0 0
0.00089 0 0
0.0009 0 0
0.0009 0 0
0.00091 0 0
0.00091 0 0
0.00092 0 0
0.00092 0 0
0.00093 0 0
0.00093 0 0
0.00094 0 0
0.00094 0 0
0.00095 0 0
0.00095 0 0
0.00096 0 0
0.00096 0 0
0.00097 0 0
0.00097 0 0
0.00098 0 0
0.00098 0 0
0.00099 0 0
0.00099 0 0
0.001 0 0
0.001 0 0
0.00101 0 0
0.00101 0 0
0.00102 0 0
0.00102 0 0
0.00103 0 0
0.00103 0 0
0.00104 0 0
0.00104 0 0
0.00105 0 0
0.00105 0 0
0.00106 0 0
0.00106 0 0
0.00107 0 0
0.00107 0 0
0.00108 0 0
0.00108 0 0
0.00109 0 0
0.00109 0 0
0.0011 0 0
0.0011 0 0
0.00111 0 0
0.00111 0 0
0.00112 0 0
0.00112 0 0
0.00113 0 0
0.00113 0 0
0.00114 0 0
0.00114 0 0
0.00115 0 0
0.00115 0 0
0.00116 0 0
0.00116 0 0
0.00117 0 0
0.00117 0 0
0.00118 0 0
0.00118 0 0
0.00119 0 0
0.00119 0 0
0.0012 0 0
0.0012 0 0
0.00121 0 0
0.00121 0 0
0.00122 0 0
0.00122 0 0
0.00123 0 0
0.00123 0 0
0.00124 0 0
0.00124 0 0
0.00125 0 0
0.00125 0 0
0.00126 0 0
0.00126 0 0
0.00127 0 0
0.00127 0 0
0.00128 0 0
0.00128 0 0
0.00129 0 0
0.00129 0 0
0.0013 0 0
0.0013 0 0
0.00131 0 0
0.00131 0 0
0.00132 0 0
0.00132 0 0
0.00133 0 0
0.00133 0 0
0.00134 0 0
0.00134 0 0
0.00135 0 0
0.00135 0 0
0.00136 0 0
0.00136 0 0
0.00137 0 0
0.00137 0 0
0.00138 0 0
0.00138 0 0
0.00139 0 0
0.00139 0 0
0.0014 0 0
0.0014 0 0
0.00141 0 0
0.00141 0 0
0.00142 0 0
0.00142 0 0
0.00143 0 0
0.00143 0 0
0.00144 0 0
0.00144 0 0
0.00145 0 0
0.00145 0 0
0.00146 0 0
0.00146 0 0
0.00147 0 0
0.00147 0 0
0.00148 0 0
0.00148 0 0
0.00149 0 0
0.00149 0 0
0.0015 0 0
0.0015 0 0
0.00151 0 0
0.00151 0 0
0.00152 0 0
0.00152 0 0
0.00153 0 0
0.00153 0 0
0.00154 0 0
0.00154 0 0
0.00155 0 0
0.00155 0 0
0.00156 0 0
0.00156 0 0
0.00157 0 0
0.00157 0 0
0.00158 0 0
0.00158 0 0
0.00159 0 0
0.00159 0 0
0.0016 0 0
0.0016 0 0
0.00161 0 0
0.00161 0 0
0.00162 0 0
0.00162 0 0
0.00163 0 0
0.00163 0 0
0.00164 0 0
0.00164 0 0
0.00165 0 0
0.00165 0 0
0.00166 0 0
0.00166 0 0
0.00167 0 0
0.00167 0 0
0.00168 0 0
0.00168 0 0
0.00169 0 0
0.00169 0 0
0.0017 0 0
0.0017 0 0
0.00171 0 0
0.00171 0 0
0.00172 0 0
0.00172 0 0
0.00173 0 0
0.00173 0 0
0.00174 0 0
0.00174 0 0
0.00175 0 0
0.00175 0 0
0.00176 0 0
0.00176 0 0
0.00177 0 0
0.00177 0 0
0.00178 0 0
0.00178 0 0
0.00179 0 0
0.00179 0 0
0.0018 0 0
0.0018 0 0
0.00181 0 0
0.00181 0 0
0.00182 0 0
0.00182 0 0
0.00183 0 0
0.00183 0 0
0.00184 0 0
0.00184 0 0
0.00185 0 0
0.00185 0 0
0.00186 0 0
0.00186 0 0
0.00187 0 0
0.00187 0 0
0.00188 0 0
0.00188 0 0
0.00189 0 0
0.00189 0 0
0.0019 0 0
0.0019 0 0
0.00191 0 0
0.00191 0 0
0.00192 0 0
0.00192 0 0
0.00193 0 0
0.00193 0 0
0.00194 0 0
0.00194 0 0
0.00195 0 0
0.00195 0 0
0.00196 0 0
0.00196 0 0
0.00197 0 0
0.00197 0 0
0.00198 0 0
0.00198 0 0
0.00199 0 0
0.00199 0 0
0.002 0 0
0.002 0 0
0.00201 0 0
0.00201 0 0
0.00202 0 0
0.00202 0 0
0.00203 0 0
0.00203 0 0
0.00204 0 0
0.00204 0 0
0.00205 0 0
0.00205 0 0
0.00206 0 0
0.00206 0 0
0.00207 0 0
0.00207 0 0
0.00208 0 0
0.00208 0 0
0.00209 0 0
0.00209 0 0
0.0021 0 0
0.0021 0 0
0.00211 0 0
0.00211 0 0
0.00212 0 0
0.00212 0 0
0.00213 0 0
0.00213 0 0
0.00214 0 0
0.00214 0 0
0.00215 0 0
0.00215 0 0
0.00216 0 0
0.00216 0 0
0.00217 0 0
0.00217 0 0
0.00218 0 0
0.00218 0 0
0.00219 0 0
0.00219 0 0
0.0022 0 0
0.0022 0 0
0.00221 0 0
0.00221 0 0
0.00222 0 0
0.00222 0 0
0.00223 0 0
0.00223 0 0
0.00224 0 0
0.00224 0 0
0.00225 0 0
0.00225 0 0
0.00226 0 0
0.00226 0 0
0.00227 0 0
0.00227 0 0
0.00228 0 0
0.00228 0 0
0.00229 0 0
0.00229 0 0
0.0023 0 0
0.0023 0 0
0.00231 0 0
0.00231 0 0
0.00232 0 0
0.00232 0 0
0.00233 0 0
0.00233 0 0
0.00234 0 0
0.00234 0 0
0.00235 0 0
0.00235 0 0
0.00236 0 0
0.00236 0 0
0.00237 0 0
0.00237 0 0
0.00238 0 0
0.00238 0 0
0.00239 0 0
0.00239 0 0
0.0024 0 0
0.0024 0 0
0.00241 0 0
0.00241 0 0
0.00242 0 0
0.00242 0 0
0.00243 0 0
0.00243 0 0
0.00244 0 0
0.00244 0 0
0.00245 0 0
0.00245 0 0
0.00246 0 0
0.00246 0 0
0.00247 0 0
0.00247 0 0
0.00248 0 0
0.00248 0 0
0.00249 0 0
0.00249 0 0
0.0025 0 0
0.0025 0 0
0.00251 0 0
0.00251 0 0
0.00252 0 0
0.00252 0 0
0.00253 0 0
0.00253 0 0
0.00254 0 0
0.00254 0 0
0.00255 0 0
0.00255 0 0
0.00256 0 0
0.00256 0 0
0.00257 0 0
0.00257 0 0
0.00258 0 0
0.00258 0 0
0.00259 0 0
0.00259 0 0
0.0026 0 0
0.0026 0 0
0.00261 0 0
0.00261 0 0
0.00262 0 0
0.00262 0 0
0.00263 0 0
0.00263 0 0
0.00264 0 0
0.00264 0 0
0.00265 0 0
0.00265 0 0
0.00266 0 0
0.00266 0 0
0.00267 0 0
0.00267 0 0
0.00268 0 0
0.00268 0 0
0.00269 0 0
0.00269 0 0
0.0027 0 0
0.0027 0 0
0.00271 0 0
0.00271 0 0
0.00272 0 0
0.00272 0 0
0.00273 0 0
0.00273 0 0
0.00274 0 0
0.00274 0 0
0.00275 0 0
0.00275 0 0
0.00276 0 0
0.00276 0 0
0.00277 0 0
0.00277 0 0
0.00278 0 0
0.00278 0 0
0.00279 0 0
0.00279 0 0
0.0028 0 0
0.0028 0 0
0.00281 0 0
0.00281 0 0
0.00282 0 0
0.00282 0 0
0.00283 0 0
0.00283 0 0
0.00284 0 0
0.00284 0 0
0.00285 0 0
0.00285 0 0
0.00286 0 0
0.00286 0 0
0.00287 0 0
0.00287 0 0
0.00288 0 0
0.00288 0 0
0.00289 0 0
0.00289 0 0
0.0029 0 0
0.0029 0 0
0.00291 0 0
0.00291 0 0
0.00292 0 0
0.00292 0 0
0.00293 0 0
0.00293 0 0
0.00294 0 0
0.00294 0 0
0.00295 0 0
0.00295 0 0
0.00296 0 0
0.00296 0 0
0.00297 0 0
0.00297 0 0
0.00298 0 0
0.00298 0 0
0.00299 0 0
0.00299 0 0
0.003 0 0
0.003 0 0
0.00301 0 0
0.00301 0 0
0.00302 0 0
0.00302 0 0
0.00303 0 0
0.00303 0 0
0.00304 0 0
0.00304 0 0
0.00305 0 0
0.00305 0 0
0.00306 0 0
0.00306 0 0
0.00307 0 0
0.00307 0 0
0.00308 0 0
0.00308 0 0
0.00309 0 0
0.00309 0 0
0.0031 0 0
0.0031 0 0
0.00311 0 0
0.00311 0 0
0.00312 0 0
0.00312 0 0
0.00313 0 0
0.00313 0 0
0.00314 0 0
0.00314 0 0
0.00315 0 0
0.00315 0 0
0.00316 0 0
0.00316 0 0
0.00317 0 0
0.00317 0 0
0.00318 0 0
0.00318 0 0
0.00319 0 0
0.00319 0 0
0.0032 0 0
0.0032 0 0
0.00321 0 0
0.00321 0 0
0.00322 0 0
0.00322 0 0
0.00323 0 0
0.00323 0 0
0.00324 0 0
0.00324 0 0
0.00325 0 0
0.00325 0 0
0.00326 0 0
0.00326 0 0
0.00327 0 0
0.00327 0 0
0.00328 0 0
0.00328 0 0
0.00329 0 0
0.00329 0 0
0.0033 0 0
0.0033 0 0
0.00331 0 0
0.00331 0 0
0.00332 0 0
0.00332 0 0
0.00333 0 0
0.00333 0 0
0.00334 0 0
0.00334 0 0
0.00335 0 0
0.00335 0 0
0.00336 0 0
0.00336 0 0
0.00337 0 0
0.00337 0 0
0.00338 0 0
0.00338 0 0
0.00339 0 0
0.00339 0 0
0.0034 0 0
0.0034 0 0
0.00341 0 0
0.00341 0 0
0.00342 0 0
0.00342 0 0
0.00343 0 0
0.00343 0 0
0.00344 0 0
0.00344 0 0
0.00345 0 0
0.00345 0 0
0.00346 0 0
0.00346 0 0
0.00347 0 0
0.00347 0 0
0.00348 0 0
0.00348 0 0
0.00349 0 0
0.00349 0 0
0.0035 0 0
0.0035 0 0
0.00351 0 0
0.00351 0 0
0.00352 0 0
0.00352 0 0
0.00353 0 0
0.00353 0 0
0.00354 0 0
0.00354 0 0
0.00355 0 0
0.00355 0 0
0.00356 0 0
0.00356 0 0
0.00357 0 0
0.00357 0 0
0.00358 0 0
0.00358 0 0
0.00359 0 0
0.00359 0 0
0.0036 0 0
0.0036 0 0
0.00361 0 0
0.00361 0 0
0.00362 0 0
0.00362 0 0
0.00363 0 0
0.00363 0 0
0.00364 0 0
0.00364 0 0
0.00365 0 0
0.00365 0 0
0.00366 0 0
0.00366 0 0
0.00367 0 0
0.00367 0 0
0.00368 0 0
0.00368 0 0
0.00369 0 0
0.00369 0 0
0.0037 0 0
0.0037 0 0
0.00371 0 0
0.00371 0 0
0.00372 0 0
0.00372 0 0
0.00373 0 0
0.00373 0 0
0.00374 0 0
0.00374 0 0
0.00375 0 0
0.00375 0 0
0.00376 0 0
0.00376 0 0
0.00377 0 0
0.00377 0 0
0.00378 0 0
0.00378 0 0
0.00379 0 0
0.00379 0 0
0.0038 0 0
0.0038 0 0
0.00381 0 0
0.00381 0 0
0.00382 0 0
0.00382 0 0
0.00383 0 0
0.00383 0 0
0.00384 0 0
0.00384 0 0
0.00385 0 0
0.00385 0 0
0.00386 0 0
0.00386 0 0
0.00387 0 0
0.00387 0 0
0.00388 0 0
0.00388 0 0
0.00389 0 0
0.00389 0 0
0.0039 0 0
0.0039 0 0
0.00391 0 0
0.00391 0 0
0.00392 0 0
0.00392 0 0
0.00393 0 0
0.00393 0 0
0.00394 0 0
0.00394 0 0
0.00395 0 0
0.00395 0 0
0.00396 0 0
0.00396 0 0
0.00397 0 0
0.00397 0 0
0.00398 0 0
0.00398 0 0
0.00399 0 0
0.00399 0 0
0.004 0 0
0.004 0 0
0.00401 0 0
0.00401 0 0
0.00402 0 0
0.00402 0 0
0.00403 0 0
0.00403 0 0
0.00404 0 0
0.00404 0 0
0.00405 0 0
0.00405 0 0
0.00406 0 0
0.00406 0 0
0.00407 0 0
0.00407 0 0
0.00408 0 0
0.00408 0 0
0.00409 0 0
0.00409 0 0
0.0041 0 0
0.0041 0 0
0.00411 0 0
0.00411 0 0
0.00412 0 0
0.00412 0 0
0.00413 0 0
0.00413 0 0
0.00414 0 0
0.00414 0 0
0.00415 0 0
0.00415 0 0
[...]
POINT_DATA 20000
VECTORS u double
0 0 0
1.16667e-07 0 0
1.16667e-07 0 0
2.33333e-07 0 0
2.33333e-07 0 0
3.5e-07 0 0
3.5e-07 0 0
4.66667e-07 0 0
4.66667e-07 0 0
5.83333e-07 0 0
5.83333e-07 0 0
7e-07 0 0
7e-07 0 0
8.16667e-07 0 0
8.16667e-07 0 0
9.33333e-07 0 0
9.33333e-07 0 0
1.05e-06 0 0
1.05e-06 0 0
1.16667e-06 0 0
1.16667e-06 0 0
1.28333e-06 0 0
1.28333e-06 0 0
1.4e-06 0 0
1.4e-06 0 0
1.51667e-06 0 0
1.51667e-06 0 0
1.63333e-06 0 0
1.63333e-06 0 0
1.75e-06 0 0
1.75e-06 0 0
1.86667e-06 0 0
1.86667e-06 0 0
1.98333e-06 0 0
1.98333e-06 0 0
2.1e-06 0 0
2.1e-06 0 0
2.21667e-06 0 0
2.21667e-06 0 0
2.33333e-06 0 0
2.33333e-06 0 0
2.45e-06 0 0
2.45e-06 0 0
2.56666e-06 0 0
2.56666e-06 0 0
2.68333e-06 0 0
2.68333e-06 0 0
2.8e-06 0 0
2.8e-06 0 0
2.91666e-06 0 0
2.91666e-06 0 0
3.03333e-06 0 0
3.03333e-06 0 0
3.15e-06 0 0
3.15e-06 0 0
3.26666e-06 0 0
3.26666e-06 0 0
3.38333e-06 0 0
3.38333e-06 0 0
3.5e-06 0 0
3.5e-06 0 0
3.61666e-06 0 0
3.61666e-06 0 0
3.73333e-06 0 0
3.73333e-06 0 0
3.84999e-06 0 0
3.84999e-06 0 0
3.96666e-06 0 0
3.96666e-06 0 0
4.08333e-06 0 0
4.08333e-06 0 0
4.19999e-06 0 0
4.19999e-06 0 0
4.31666e-06 0 0
4.31666e-06 0 0
4.43332e-06 0 0
4.43332e-06 0 0
4.54999e-06 0 0
4.54999e-06 0 0
4.66666e-06 0 0
4.66666e-06 0 0
4.78332e-06 0 0
4.78332e-06 0 0
4.89999e-06 0 0
4.89999e-06 0 0
5.01665e-06 0 0
5.01665e-06 0 0
5.13332e-06 0 0
5.13332e-06 0 0
5.24998e-06 0 0
5.24998e-06 0 0
5.36665e-06 0 0
5.36665e-06 0 0
5.48332e-06 0 0
5.48332e-06 0 0
5.59998e-06 0 0
5.59998e-06 0 0
5.71665e-06 0 0
5.71665e-06 0 0
5.83331e-06 0 0
5.83331e-06 0 0
5.94998e-06 0 0
5.94998e-06 0 0
6.06664e-06 0 0
6.06664e-06 0 0
6.18331e-06 0 0
6.18331e-06 0 0
6.29997e-06 0 0
6.29997e-06 0 0
6.41664e-06 0 0
6.41664e-06 0 0
6.5333e-06 0 0
6.5333e-06 0 0
6.64997e-06 0 0
6.64997e-06 0 0
6.76663e-06 0 0
6.76663e-06 0 0
6.8833e-06 0 0
6.8833e-06 0 0
6.99996e-06 0 0
6.99996e-06 0 0
7.11663e-06 0 0
7.11663e-06 0 0
7.23329e-06 0 0
7.23329e-06 0 0
7.34996e-06 0 0
7.34996e-06 0 0
7.46662e-06 0 0
7.46662e-06 0 0
7.58329e-06 0 0
7.58329e-06 0 0
7.69995e-06 0 0
7.69995e-06 0 0
7.81662e-06 0 0
7.81662e-06 0 0
7.93328e-06 0 0
7.93328e-06 0 0
8.04995e-06 0 0
8.04995e-06 0 0
8.16661e-06 0 0
8.16661e-06 0 0
8.28327e-06 0 0
8.28327e-06 0 0
8.39994e-06 0 0
8.39994e-06 0 0
8.5166e-06 0 0
8.5166e-06 0 0
8.63327e-06 0 0
8.63327e-06 0 0
8.74993e-06 0 0
8.74993e-06 0 0
8.86659e-06 0 0
8.86659e-06 0 0
8.98326e-06 0 0
8.98326e-06 0 0
9.09992e-06 0 0
9.09992e-06 0 0
9.21658e-06 0 0
9.21658e-06 0 0
9.33325e-06 0 0
9.33325e-06 0 0
9.44991e-06 0 0
9.44991e-06 0 0
9.56657e-06 0 0
9.56657e-06 0 0
9.68324e-06 0 0
9.68324e-06 0 0
9.7999e-06 0 0
9.7999e-06 0 0
9.91656e-06 0 0
9.91656e-06 0 0
1.00332e-05 0 0
1.00332e-05 0 0
1.01499e-05 0 0
1.01499e-05 0 0
1.02666e-05 0 0
1.02666e-05 0 0
1.03832e-05 0 0
1.03832e-05 0 0
1.04999e-05 0 0
1.04999e-05 0 0
1.06165e-05 0 0
1.06165e-05 0 0
1.07332e-05 0 0
1.07332e-05 0 0
1.08499e-05 0 0
1.08499e-05 0 0
1.09665e-05 0 0
1.09665e-05 0 0
1.10832e-05 0 0
1.10832e-05 0 0
1.11999e-05 0 0
1.11999e-05 0 0
1.13165e-05 0 0
1.13165e-05 0 0
1.14332e-05 0 0
1.14332e-05 0 0
1.15498e-05 0 0
1.15498e-05 0 0
1.16665e-05 0 0
1.16665e-05 0 0
1.17832e-05 0 0
1.17832e-05 0 0
1.18998e-05 0 0
1.18998e-05 0 0
1.20165e-05 0 0
1.20165e-05 0 0
1.21331e-05 0 0
1.21331e-05 0 0
1.22498e-05 0 0
1.22498e-05 0 0
1.23665e-05 0 0
1.23665e-05 0 0
1.24831e-05 0 0
1.24831e-05 0 0
1.25998e-05 0 0
1.25998e-05 0 0
1.27165e-05 0 0
1.27165e-05 0 0
1.28331e-05 0 0
1.28331e-05 0 0
1.29498e-05 0 0
1.29498e-05 0 0
1.30664e-05 0 0
1.30664e-05 0 0
1.31831e-05 0 0
1.31831e-05 0 0
1.32998e-05 0 0
1.32998e-05 0 0
1.34164e-05 0 0
1.34164e-05 0 0
1.35331e-05 0 0
1.35331e-05 0 0
1.36497e-05 0 0
1.36497e-05 0 0
1.37664e-05 0 0
1.37664e-05 0 0
1.38831e-05 0 0
1.38831e-05 0 0
1.39997e-05 0 0
1.39997e-05 0 0
1.41164e-05 0 0
1.41164e-05 0 0
1.4233e-05 0 0
1.4233e-05 0 0
1.43497e-05 0 0
1.43497e-05 0 0
1.44663e-05 0 0
1.44663e-05 0 0
1.4583e-05 0 0
1.4583e-05 0 0
1.46997e-05 0 0
1.46997e-05 0 0
1.48163e-05 0 0
1.48163e-05 0 0
1.4933e-05 0 0
1.4933e-05 0 0
1.50496e-05 0 0
1.50496e-05 0 0
1.51663e-05 0 0
1.51663e-05 0 0
1.5283e-05 0 0
1.5283e-05 0 0
1.53996e-05 0 0
1.53996e-05 0 0
1.55163e-05 0 0
1.55163e-05 0 0
1.56329e-05 0 0
1.56329e-05 0 0
1.57496e-05 0 0
1.57496e-05 0 0
1.58662e-05 0 0
1.58662e-05 0 0
1.59829e-05 0 0
1.59829e-05 0 0
1.60996e-05 0 0
1.60996e-05 0 0
1.62162e-05 0 0
1.62162e-05 0 0
1.63329e-05 0 0
1.63329e-05 0 0
1.64495e-05 0 0
1.64495e-05 0 0
1.65662e-05 0 0
1.65662e-05 0 0
1.66828e-05 0 0
1.66828e-05 0 0
1.67995e-05 0 0
1.67995e-05 0 0
1.69162e-05 0 0
1.69162e-05 0 0
1.70328e-05 0 0
1.70328e-05 0 0
1.71495e-05 0 0
1.71495e-05 0 0
1.72661e-05 0 0
1.72661e-05 0 0
1.73828e-05 0 0
1.73828e-05 0 0
1.74994e-05 0 0
1.74994e-05 0 0
1.76161e-05 0 0
1.76161e-05 0 0
1.77327e-05 0 0
1.77327e-05 0 0
1.78494e-05 0 0
1.78494e-05 0 0
1.79661e-05 0 0
1.79661e-05 0 0
1.80827e-05 0 0
1.80827e-05 0 0
1.81994e-05 0 0
1.81994e-05 0 0
1.8316e-05 0 0
1.8316e-05 0 0
1.84327e-05 0 0
1.84327e-05 0 0
1.85493e-05 0 0
1.85493e-05 0 0
1.8666e-05 0 0
1.8666e-05 0 0
1.87826e-05 0 0
1.87826e-05 0 0
1.88993e-05 0 0
1.88993e-05 0 0
1.90159e-05 0 0
1.90159e-05 0 0
1.91326e-05 0 0
1.91326e-05 0 0
1.92493e-05 0 0
1.92493e-05 0 0
1.93659e-05 0 0
1.93659e-05 0 0
1.94826e-05 0 0
1.94826e-05 0 0
1.95992e-05 0 0
1.95992e-05 0 0
1.97159e-05 0 0
1.97159e-05 0 0
1.98325e-05 0 0
1.98325e-05 0 0
1.99492e-05 0 0
1.99492e-05 0 0
2.00658e-05 0 0
2.00658e-05 0 0
2.01825e-05 0 0
2.01825e-05 0 0
2.02991e-05 0 0
2.02991e-05 0 0
2.04158e-05 0 0
2.04158e-05 0 0
2.05324e-05 0 0
2.05324e-05 0 0
2.06491e-05 0 0
2.06491e-05 0 0
2.07657e-05 0 0
2.07657e-05 0 0
2.08824e-05 0 0
2.08824e-05 0 0
2.0999e-05 0 0
2.0999e-05 0 0
2.11157e-05 0 0
2.11157e-05 0 0
2.12323e-05 0 0
2.12323e-05 0 0
2.1349e-05 0 0
2.1349e-05 0 0
2.14656e-05 0 0
2.14656e-05 0 0
2.15823e-05 0 0
2.15823e-05 0 0
2.16989e-05 0 0
2.16989e-05 0 0
2.18156e-05 0 0
2.18156e-05 0 0
2.19322e-05 0 0
2.19322e-05 0 0
2.20489e-05 0 0
2.20489e-05 0 0
2.21655e-05 0 0
2.21655e-05 0 0
2.22822e-05 0 0
2.22822e-05 0 0
2.23988e-05 0 0
2.23988e-05 0 0
2.25155e-05 0 0
2.25155e-05 0 0
2.26321e-05 0 0
2.26321e-05 0 0
2.27488e-05 0 0
2.27488e-05 0 0
2.28654e-05 0 0
2.28654e-05 0 0
2.29821e-05 0 0
2.29821e-05 0 0
2.30987e-05 0 0
2.30987e-05 0 0
2.32154e-05 0 0
2.32154e-05 0 0
2.3332e-05 0 0
2.3332e-05 0 0
2.34486e-05 0 0
2.34486e-05 0 0
2.35653e-05 0 0
2.35653e-05 0 0
2.36819e-05 0 0
2.36819e-05 0 0
2.37986e-05 0 0
2.37986e-05 0 0
2.39152e-05 0 0
2.39152e-05 0 0
2.40319e-05 0 0
2.40319e-05 0 0
2.41485e-05 0 0
2.41485e-05 0 0
2.42652e-05 0 0
2.42652e-05 0 0
2.43818e-05 0 0
2.43818e-05 0 0
2.44985e-05 0 0
2.44985e-05 0 0
2.46151e-05 0 0
2.46151e-05 0 0
2.47317e-05 0 0
2.47317e-05 0 0
2.48484e-05 0 0
2.48484e-05 0 0
2.4965e-05 0 0
2.4965e-05 0 0
2.50817e-05 0 0
2.50817e-05 0 0
2.51983e-05 0 0
2.51983e-05 0 0
2.5315e-05 0 0
2.5315e-05 0 0
2.54316e-05 0 0
2.54316e-05 0 0
2.55483e-05 0 0
2.55483e-05 0 0
2.56649e-05 0 0
2.56649e-05 0 0
2.57815e-05 0 0
2.57815e-05 0 0
2.58982e-05 0 0
2.58982e-05 0 0
2.60148e-05 0 0
2.60148e-05 0 0
2.61315e-05 0 0
2.61315e-05 0 0
2.62481e-05 0 0
2.62481e-05 0 0
2.63647e-05 0 0
2.63647e-05 0 0
2.64814e-05 0 0
2.64814e-05 0 0
2.6598e-05 0 0
2.6598e-05 0 0
2.67147e-05 0 0
2.67147e-05 0 0
2.68313e-05 0 0
2.68313e-05 0 0
2.69479e-05 0 0
2.69479e-05 0 0
2.70646e-05 0 0
2.70646e-05 0 0
2.71812e-05 0 0
2.71812e-05 0 0
2.72979e-05 0 0
2.72979e-05 0 0
2.74145e-05 0 0
2.74145e-05 0 0
2.75311e-05 0 0
2.75311e-05 0 0
2.76478e-05 0 0
2.76478e-05 0 0
2.77644e-05 0 0
2.77644e-05 0 0
2.78811e-05 0 0
2.78811e-05 0 0
2.79977e-05 0 0
2.79977e-05 0 0
2.81143e-05 0 0
2.81143e-05 0 0
2.8231e-05 0 0
2.8231e-05 0 0
2.83476e-05 0 0
2.83476e-05 0 0
2.84642e-05 0 0
2.84642e-05 0 0
2.85809e-05 0 0
2.85809e-05 0 0
2.86975e-05 0 0
2.86975e-05 0 0
2.88142e-05 0 0
2.88142e-05 0 0
2.89308e-05 0 0
2.89308e-05 0 0
2.90474e-05 0 0
2.90474e-05 0 0
2.91641e-05 0 0
2.91641e-05 0 0
2.92807e-05 0 0
2.92807e-05 0 0
2.93973e-05 0 0
2.93973e-05 0 0
2.9514e-05 0 0
2.9514e-05 0 0
2.96306e-05 0 0
2.96306e-05 0 0
2.97472e-05 0 0
2.97472e-05 0 0
2.98639e-05 0 0
2.98639e-05 0 0
2.99805e-05 0 0
2.99805e-05 0 0
3.00971e-05 0 0
3.00971e-05 0 0
3.02138e-05 0 0
3.02138e-05 0 0
3.03304e-05 0 0
3.03304e-05 0 0
3.0447e-05 0 0
3.0447e-05 0 0
3.05637e-05 0 0
3.05637e-05 0 0
3.06803e-05 0 0
3.06803e-05 0 0
3.07969e-05 0 0
3.07969e-05 0 0
3.09136e-05 0 0
3.09136e-05 0 0
3.10302e-05 0 0
3.10302e-05 0 0
3.11468e-05 0 0
3.11468e-05 0 0
3.12635e-05 0 0
3.12635e-05 0 0
3.13801e-05 0 0
3.13801e-05 0 0
3.14967e-05 0 0
3.14967e-05 0 0
3.16133e-05 0 0
3.16133e-05 0 0
3.173e-05 0 0
3.173e-05 0 0
3.18466e-05 0 0
3.18466e-05 0 0
3.19632e-05 0 0
3.19632e-05 0 0
3.20799e-05 0 0
3.20799e-05 0 0
3.21965e-05 0 0
3.21965e-05 0 0
3.23131e-05 0 0
3.23131e-05 0 0
3.24298e-05 0 0
3.24298e-05 0 0
3.25464e-05 0 0
3.25464e-05 0 0
3.2663e-05 0 0
3.2663e-05 0 0
3.27796e-05 0 0
3.27796e-05 0 0
3.28963e-05 0 0
3.28963e-05 0 0
3.30129e-05 0 0
3.30129e-05 0 0
3.31295e-05 0 0
3.31295e-05 0 0
3.32461e-05 0 0
3.32461e-05 0 0
3.33628e-05 0 0
3.33628e-05 0 0
3.34794e-05 0 0
3.34794e-05 0 0
3.3596e-05 0 0
3.3596e-05 0 0
3.37126e-05 0 0
3.37126e-05 0 0
3.38293e-05 0 0
3.38293e-05 0 0
3.39459e-05 0 0
3.39459e-05 0 0
3.40625e-05 0 0
3.40625e-05 0 0
3.41791e-05 0 0
3.41791e-05 0 0
3.42958e-05 0 0
3.42958e-05 0 0
3.44124e-05 0 0
3.44124e-05 0 0
3.4529e-05 0 0
3.4529e-05 0 0
3.46456e-05 0 0
3.46456e-05 0 0
3.47623e-05 0 0
3.47623e-05 0 0
3.48789e-05 0 0
3.48789e-05 0 0
3.49955e-05 0 0
3.49955e-05 0 0
3.51121e-05 0 0
3.51121e-05 0 0
3.52287e-05 0 0
3.52287e-05 0 0
3.53454e-05 0 0
3.53454e-05 0 0
3.5462e-05 0 0
3.5462e-05 0 0
3.55786e-05 0 0
3.55786e-05 0 0
3.56952e-05 0 0
3.56952e-05 0 0
3.58118e-05 0 0
3.58118e-05 0 0
3.59285e-05 0 0
3.59285e-05 0 0
3.60451e-05 0 0
3.60451e-05 0 0
3.61617e-05 0 0
3.61617e-05 0 0
3.62783e-05 0 0
3.62783e-05 0 0
3.63949e-05 0 0
3.63949e-05 0 0
3.65116e-05 0 0
3.65116e-05 0 0
3.66282e-05 0 0
3.66282e-05 0 0
3.67448e-05 0 0
3.67448e-05 0 0
3.68614e-05 0 0
3.68614e-05 0 0
3.6978e-05 0 0
3.6978e-05 0 0
3.70946e-05 0 0
3.70946e-05 0 0
3.72113e-05 0 0
3.72113e-05 0 0
3.73279e-05 0 0
3.73279e-05 0 0
3.74445e-05 0 0
3.74445e-05 0 0
3.75611e-05 0 0
3.75611e-05 0 0
3.76777e-05 0 0
3.76777e-05 0 0
3.77943e-05 0 0
3.77943e-05 0 0
3.79109e-05 0 0
3.79109e-05 0 0
3.80276e-05 0 0
3.80276e-05 0 0
3.81442e-05 0 0
3.81442e-05 0 0
3.82608e-05 0 0
3.82608e-05 0 0
3.83774e-05 0 0
3.83774e-05 0 0
3.8494e-05 0 0
3.8494e-05 0 0
3.86106e-05 0 0
3.86106e-05 0 0
3.87272e-05 0 0
3.87272e-05 0 0
3.88438e-05 0 0
3.88438e-05 0 0
3.89605e-05 0 0
3.89605e-05 0 0
3.90771e-05 0 0
3.90771e-05 0 0
3.91937e-05 0 0
3.91937e-05 0 0
3.93103e-05 0 0
3.93103e-05 0 0
3.94269e-05 0 0
3.94269e-05 0 0
3.95435e-05 0 0
3.95435e-05 0 0
3.96601e-05 0 0
3.96601e-05 0 0
3.97767e-05 0 0
3.97767e-05 0 0
3.98933e-05 0 0
3.98933e-05 0 0
4.00099e-05 0 0
4.00099e-05 0 0
4.01265e-05 0 0
4.01265e-05 0 0
4.02432e-05 0 0
4.02432e-05 0 0
4.03598e-05 0 0
4.03598e-05 0 0
4.04764e-05 0 0
4.04764e-05 0 0
4.0593e-05 0 0
4.0593e-05 0 0
4.07096e-05 0 0
4.07096e-05 0 0
4.08262e-05 0 0
4.08262e-05 0 0
4.09428e-05 0 0
4.09428e-05 0 0
4.10594e-05 0 0
4.10594e-05 0 0
4.1176e-05 0 0
4.1176e-05 0 0
4.12926e-05 0 0
4.12926e-05 0 0
4.14092e-05 0 0
4.14092e-05 0 0
4.15258e-05 0 0
4.15258e-05 0 0
4.16424e-05 0 0
4.16424e-05 0 0
4.1759e-05 0 0
4.1759e-05 0 0
4.18756e-05 0 0
4.18756e-05 0 0
4.19922e-05 0 0
4.19922e-05 0 0
4.21088e-05 0 0
4.21088e-05 0 0
4.22254e-05 0 0
4.22254e-05 0 0
4.2342e-05 0 0
4.2342e-05 0 0
4.24586e-05 0 0
4.24586e-05 0 0
4.25752e-05 0 0
4.25752e-05 0 0
4.26918e-05 0 0
4.26918e-05 0 0
4.28084e-05 0 0
4.28084e-05 0 0
4.2925e-05 0 0
4.2925e-05 0 0
4.30416e-05 0 0
4.30416e-05 0 0
4.31582e-05 0 0
4.31582e-05 0 0
4.32748e-05 0 0
4.32748e-05 0 0
4.33914e-05 0 0
4.33914e-05 0 0
4.3508e-05 0 0
4.3508e-05 0 0
4.36246e-05 0 0
4.36246e-05 0 0
4.37412e-05 0 0
4.37412e-05 0 0
4.38578e-05 0 0
4.38578e-05 0 0
4.39744e-05 0 0
4.39744e-05 0 0
4.4091e-05 0 0
4.4091e-05 0 0
4.42076e-05 0 0
4.42076e-05 0 0
4.43242e-05 0 0
4.43242e-05 0 0
4.44408e-05 0 0
4.44408e-05 0 0
4.45574e-05 0 0
4.45574e-05 0 0
4.4674e-05 0 0
4.4674e-05 0 0
4.47906e-05 0 0
4.47906e-05 0 0
4.49072e-05 0 0
4.49072e-05 0 0
4.50237e-05 0 0
4.50237e-05 0 0
4.51403e-05 0 0
4.51403e-05 0 0
4.52569e-05 0 0
4.52569e-05 0 0
4.53735e-05 0 0
4.53735e-05 0 0
4.54901e-05 0 0
4.54901e-05 0 0
4.56067e-05 0 0
4.56067e-05 0 0
4.57233e-05 0 0
4.57233e-05 0 0
4.58399e-05 0 0
4.58399e-05 0 0
4.59565e-05 0 0
4.59565e-05 0 0
4.60731e-05 0 0
4.60731e-05 0 0
4.61896e-05 0 0
4.61896e-05 0 0
4.63062e-05 0 0
4.63062e-05 0 0
4.64228e-05 0 0
4.64228e-05 0 0
4.65394e-05 0 0
4.65394e-05 0 0
4.6656e-05 0 0
4.6656e-05 0 0
4.67726e-05 0 0
4.67726e-05 0 0
4.68892e-05 0 0
4.68892e-05 0 0
4.70058e-05 0 0
4.70058e-05 0 0
4.71223e-05 0 0
4.71223e-05 0 0
4.72389e-05 0 0
4.72389e-05 0 0
4.73555e-05 0 0
4.73555e-05 0 0
4.74721e-05 0 0
4.74721e-05 0 0
4.75887e-05 0 0
4.75887e-05 0 0
4.77053e-05 0 0
4.77053e-05 0 0
4.78218e-05 0 0
4.78218e-05 0 0
4.79384e-05 0 0
4.79384e-05 0 0
4.8055e-05 0 0
4.8055e-05 0 0
4.81716e-05 0 0
4.81716e-05 0 0
4.82882e-05 0 0
4.82882e-05 0 0
4.84048e-05 0 0
4.84048e-05 0 0
4.85213e-05 0 0
4.85213e-05 0 0
4.86379e-05 0 0
4.86379e-05 0 0
4.87545e-05 0 0
4.87545e-05 0 0
4.88711e-05 0 0
4.88711e-05 0 0
4.89877e-05 0 0
4.89877e-05 0 0
4.91042e-05 0 0
4.91042e-05 0 0
4.92208e-05 0 0
4.92208e-05 0 0
4.93374e-05 0 0
4.93374e-05 0 0
4.9454e-05 0 0
4.9454e-05 0 0
4.95705e-05 0 0
4.95705e-05 0 0
4.96871e-05 0 0
4.96871e-05 0 0
4.98037e-05 0 0
4.98037e-05 0 0
4.99203e-05 0 0
4.99203e-05 0 0
5.00368e-05 0 0
5.00368e-05 0 0
5.01534e-05 0 0
5.01534e-05 0 0
5.027e-05 0 0
5.027e-05 0 0
5.03866e-05 0 0
5.03866e-05 0 0
5.05031e-05 0 0
5.05031e-05 0 0
5.06197e-05 0 0
5.06197e-05 0 0
5.07363e-05 0 0
5.07363e-05 0 0
5.08529e-05 0 0
5.08529e-05 0 0
5.09694e-05 0 0
5.09694e-05 0 0
5.1086e-05 0 0
5.1086e-05 0 0
5.12026e-05 0 0
5.12026e-05 0 0
5.13191e-05 0 0
5.13191e-05 0 0
5.14357e-05 0 0
5.14357e-05 0 0
5.15523e-05 0 0
5.15523e-05 0 0
5.16688e-05 0 0
5.16688e-05 0 0
5.17854e-05 0 0
5.17854e-05 0 0
5.1902e-05 0 0
5.1902e-05 0 0
5.20185e-05 0 0
5.20185e-05 0 0
5.21351e-05 0 0
5.21351e-05 0 0
5.22517e-05 0 0
5.22517e-05 0 0
5.23682e-05 0 0
5.23682e-05 0 0
5.24848e-05 0 0
5.24848e-05 0 0
5.26014e-05 0 0
5.26014e-05 0 0
5.27179e-05 0 0
5.27179e-05 0 0
5.28345e-05 0 0
5.28345e-05 0 0
5.29511e-05 0 0
5.29511e-05 0 0
5.30676e-05 0 0
5.30676e-05 0 0
5.31842e-05 0 0
5.31842e-05 0 0
5.33008e-05 0 0
5.33008e-05 0 0
5.34173e-05 0 0
5.34173e-05 0 0
5.35339e-05 0 0
5.35339e-05 0 0
5.36504e-05 0 0
5.36504e-05 0 0
5.3767e-05 0 0
5.3767e-05 0 0
5.38836e-05 0 0
5.38836e-05 0 0
5.40001e-05 0 0
5.40001e-05 0 0
5.41167e-05 0 0
5.41167e-05 0 0
5.42332e-05 0 0
5.42332e-05 0 0
5.43498e-05 0 0
5.43498e-05 0 0
5.44664e-05 0 0
5.44664e-05 0 0
5.45829e-05 0 0
5.45829e-05 0 0
5.46995e-05 0 0
5.46995e-05 0 0
5.4816e-05 0 0
5.4816e-05 0 0
5.49326e-05 0 0
5.49326e-05 0 0
5.50491e-05 0 0
5.50491e-05 0 0
5.51657e-05 0 0
5.51657e-05 0 0
5.52823e-05 0 0
5.52823e-05 0 0
5.53988e-05 0 0
5.53988e-05 0 0
5.55154e-05 0 0
5.55154e-05 0 0
5.56319e-05 0 0
5.56319e-05 0 0
5.57485e-05 0 0
5.57485e-05 0 0
5.5865e-05 0 0
5.5865e-05 0 0
5.59816e-05 0 0
5.59816e-05 0 0
5.60981e-05 0 0
5.60981e-05 0 0
5.62147e-05 0 0
5.62147e-05 0 0
5.63312e-05 0 0
5.63312e-05 0 0
5.64478e-05 0 0
5.64478e-05 0 0
5.65643e-05 0 0
5.65643e-05 0 0
5.66809e-05 0 0
5.66809e-05 0 0
5.67974e-05 0 0
5.67974e-05 0 0
5.6914e-05 0 0
5.6914e-05 0 0
5.70305e-05 0 0
5.70305e-05 0 0
5.71471e-05 0 0
5.71471e-05 0 0
5.72636e-05 0 0
5.72636e-05 0 0
5.73802e-05 0 0
5.73802e-05 0 0
5.74967e-05 0 0
5.74967e-05 0 0
5.76132e-05 0 0
5.76132e-05 0 0
5.77298e-05 0 0
5.77298e-05 0 0
5.78463e-05 0 0
5.78463e-05 0 0
5.79629e-05 0 0
5.79629e-05 0 0
5.80794e-05 0 0
5.80794e-05 0 0
5.8196e-05 0 0
5.8196e-05 0 0
5.83125e-05 0 0
5.83125e-05 0 0
5.8429e-05 0 0
5.8429e-05 0 0
5.85456e-05 0 0
5.85456e-05 0 0
5.86621e-05 0 0
5.86621e-05 0 0
5.87787e-05 0 0
5.87787e-05 0 0
5.88952e-05 0 0
5.88952e-05 0 0
5.90117e-05 0 0
5.90117e-05 0 0
5.91283e-05 0 0
5.91283e-05 0 0
5.92448e-05 0 0
5.92448e-05 0 0
5.93614e-05 0 0
5.93614e-05 0 0
5.94779e-05 0 0
5.94779e-05 0 0
5.95944e-05 0 0
5.95944e-05 0 0
5.9711e-05 0 0
5.9711e-05 0 0
5.98275e-05 0 0
5.98275e-05 0 0
5.9944e-05 0 0
5.9944e-05 0 0
6.00606e-05 0 0
6.00606e-05 0 0
6.01771e-05 0 0
6.01771e-05 0 0
6.02936e-05 0 0
6.02936e-05 0 0
6.04102e-05 0 0
6.04102e-05 0 0
6.05267e-05 0 0
6.05267e-05 0 0
6.06432e-05 0 0
6.06432e-05 0 0
6.07598e-05 0 0
6.07598e-05 0 0
6.08763e-05 0 0
6.08763e-05 0 0
6.09928e-05 0 0
6.09928e-05 0 0
6.11094e-05 0 0
6.11094e-05 0 0
6.12259e-05 0 0
6.12259e-05 0 0
6.13424e-05 0 0
6.13424e-05 0 0
6.14589e-05 0 0
6.14589e-05 0 0
6.15755e-05 0 0
6.15755e-05 0 0
6.1692e-05 0 0
6.1692e-05 0 0
6.18085e-05 0 0
6.18085e-05 0 0
6.1925e-05 0 0
6.1925e-05 0 0
6.20416e-05 0 0
6.20416e-05 0 0
6.21581e-05 0 0
6.21581e-05 0 0
6.22746e-05 0 0
6.22746e-05 0 0
6.23911e-05 0 0
6.23911e-05 0 0
6.25077e-05 0 0
6.25077e-05 0 0
6.26242e-05 0 0
6.26242e-05 0 0
6.27407e-05 0 0
6.27407e-05 0 0
6.28572e-05 0 0
6.28572e-05 0 0
6.29738e-05 0 0
6.29738e-05 0 0
6.30903e-05 0 0
6.30903e-05 0 0
6.32068e-05 0 0
6.32068e-05 0 0
6.33233e-05 0 0
6.33233e-05 0 0
6.34398e-05 0 0
6.34398e-05 0 0
6.35564e-05 0 0
6.35564e-05 0 0
6.36729e-05 0 0
6.36729e-05 0 0
6.37894e-05 0 0
6.37894e-05 0 0
6.39059e-05 0 0
6.39059e-05 0 0
6.40224e-05 0 0
6.40224e-05 0 0
6.41389e-05 0 0
6.41389e-05 0 0
6.42555e-05 0 0
6.42555e-05 0 0
6.4372e-05 0 0
6.4372e-05 0 0
6.44885e-05 0 0
6.44885e-05 0 0
6.4605e-05 0 0
6.4605e-05 0 0
6.47215e-05 0 0
6.47215e-05 0 0
6.4838e-05 0 0
6.4838e-05 0 0
6.49545e-05 0 0
6.49545e-05 0 0
6.5071e-05 0 0
6.5071e-05 0 0
6.51876e-05 0 0
6.51876e-05 0 0
6.53041e-05 0 0
6.53041e-05 0 0
6.54206e-05 0 0
6.54206e-05 0 0
6.55371e-05 0 0
6.55371e-05 0 0
6.56536e-05 0 0
6.56536e-05 0 0
6.57701e-05 0 0
6.57701e-05 0 0
6.58866e-05 0 0
6.58866e-05 0 0
6.60031e-05 0 0
6.60031e-05 0 0
6.61196e-05 0 0
6.61196e-05 0 0
6.62361e-05 0 0
6.62361e-05 0 0
6.63526e-05 0 0
6.63526e-05 0 0
6.64691e-05 0 0
6.64691e-05 0 0
6.65856e-05 0 0
6.65856e-05 0 0
6.67021e-05 0 0
6.67021e-05 0 0
6.68186e-05 0 0
6.68186e-05 0 0
6.69352e-05 0 0
6.69352e-05 0 0
6.70516e-05 0 0
6.70516e-05 0 0
6.71681e-05 0 0
6.71681e-05 0 0
6.72847e-05 0 0
6.72847e-05 0 0
6.74012e-05 0 0
6.74012e-05 0 0
6.75176e-05 0 0
6.75176e-05 0 0
6.76342e-05 0 0
6.76342e-05 0 0
6.77506e-05 0 0
6.77506e-05 0 0
6.78671e-05 0 0
6.78671e-05 0 0
6.79836e-05 0 0
6.79836e-05 0 0
6.81001e-05 0 0
6.81001e-05 0 0
6.82166e-05 0 0
6.82166e-05 0 0
6.83331e-05 0 0
6.83331e-05 0 0
6.84496e-05 0 0
6.84496e-05 0 0
6.85661e-05 0 0
6.85661e-05 0 0
6.86826e-05 0 0
6.86826e-05 0 0
6.87991e-05 0 0
6.87991e-05 0 0
6.89156e-05 0 0
6.89156e-05 0 0
6.90321e-05 0 0
6.90321e-05 0 0
6.91486e-05 0 0
6.91486e-05 0 0
6.92651e-05 0 0
6.92651e-05 0 0
6.93816e-05 0 0
6.93816e-05 0 0
6.9498e-05 0 0
6.9498e-05 0 0
6.96145e-05 0 0
6.96145e-05 0 0
6.9731e-05 0 0
6.9731e-05 0 0
6.98475e-05 0 0
6.98475e-05 0 0
6.9964e-05 0 0
6.9964e-05 0 0
7.00805e-05 0 0
7.00805e-05 0 0
7.0197e-05 0 0
7.0197e-05 0 0
7.03135e-05 0 0
7.03135e-05 0 0
7.04299e-05 0 0
7.04299e-05 0 0
7.05464e-05 0 0
7.05464e-05 0 0
7.06629e-05 0 0
7.06629e-05 0 0
7.07794e-05 0 0
7.07794e-05 0 0
7.08959e-05 0 0
7.08959e-05 0 0
7.10124e-05 0 0
7.10124e-05 0 0
7.11288e-05 0 0
7.11288e-05 0 0
7.12453e-05 0 0
7.12453e-05 0 0
7.13618e-05 0 0
7.13618e-05 0 0
7.14783e-05 0 0
7.14783e-05 0 0
7.15948e-05 0 0
7.15948e-05 0 0
7.17112e-05 0 0
7.17112e-05 0 0
7.18277e-05 0 0
7.18277e-05 0 0
7.19442e-05 0 0
7.19442e-05 0 0
7.20607e-05 0 0
7.20607e-05 0 0
7.21771e-05 0 0
7.21771e-05 0 0
7.22936e-05 0 0
7.22936e-05 0 0
7.24101e-05 0 0
7.24101e-05 0 0
7.25266e-05 0 0
7.25266e-05 0 0
7.2643e-05 0 0
7.2643e-05 0 0
7.27595e-05 0 0
7.27595e-05 0 0
7.2876e-05 0 0
7.2876e-05 0 0
7.29925e-05 0 0
7.29925e-05 0 0
7.31089e-05 0 0
7.31089e-05 0 0
7.32254e-05 0 0
7.32254e-05 0 0
7.33419e-05 0 0
7.33419e-05 0 0
7.34583e-05 0 0
7.34583e-05 0 0